ITEM: TIMESTEP
0
ITEM: NUMBER OF ATOMS
32000
ITEM: BOX BOUNDS pp pp pp
0.0000000000000000e+00 3.3591923827650149e+01
0.0000000000000000e+00 3.3591923827650149e+01
0.0000000000000000e+00 3.3591923827650149e+01
ITEM: ATOMS id type x y z vx vy vz
1 1 0 0 0 -0.121524 -0.558288 -1.68102
2 1 0.839798 0.839798 0 -1.04891 1.22033 1.32326
3 1 0.839798 0 0.839798 -1.05356 -0.551118 0.925602
4 1 0 0.839798 0.839798 1.41315 1.59658 -0.562522
5 1 1.6796 0 0 -0.729191 -0.500425 -0.188841
6 1 2.51939 0.839798 0 -0.626638 -0.467281 -1.48721
7 1 2.51939 0 0.839798 0.371995 -1.33743 -1.70132
8 1 1.6796 0.839798 0.839798 -1.28435 1.25023 0.952225
9 1 3.35919 0 0 -0.984527 1.39494 -1.35028
10 1 4.19899 0.839798 0 0.875643 1.67504 0.195617
11 1 4.19899 0 0.839798 0.393637 -1.72557 1.47268
12 1 3.35919 0.839798 0.839798 0.317156 -0.542322 -0.368484
13 1 5.03879 0 0 -1.23345 0.145988 -1.03364
16 1 5.03879 0.839798 0.839798 1.51027 0.490692 0.929348
14 1 5.87859 0.839798 0 -0.478238 0.229106 -1.64668
15 1 5.87859 0 0.839798 1.5094 -0.330048 -1.19974
17 1 6.71838 0 0 1.53202 -1.60194 -1.42905
20 1 6.71838 0.839798 0.839798 1.33849 -1.30604 -1.21594
18 1 7.55818 0.839798 0 -0.516915 -1.30372 -0.451003
19 1 7.55818 0 0.839798 1.44387 1.08855 -1.05849
21 1 8.39798 0 0 -1.35771 -0.656624 -0.198022
24 1 8.39798 0.839798 0.839798 0.784366 0.423099 -1.07678
22 1 9.23778 0.839798 0 0.678713 0.296495 0.407873
23 1 9.23778 0 0.839798 1.5823 0.707555 0.934197
25 1 10.0776 0 0 0.12758 0.309786 -1.62304
28 1 10.0776 0.839798 0.839798 1.54325 -0.1689 -1.25928
26 1 10.9174 0.839798 0 -1.31091 -1.23591 1.70597
27 1 10.9174 0 0.839798 0.49842 1.11192 -0.103116
29 1 11.7572 0 0 -1.28841 -1.21752 -1.30774
30 1 12.597 0.839798 0 -1.15331 1.46168 0.228309
31 1 12.597 0 0.839798 -1.34043 -1.4823 1.41821
32 1 11.7572 0.839798 0.839798 0.729367 -1.47407 1.09059
33 1 13.4368 0 0 1.69244 0.0170732 -0.228853
34 1 14.2766 0.839798 0 1.28554 0.0601943 -0.294217
35 1 14.2766 0 0.839798 -0.919211 -0.181257 -0.859454
36 1 13.4368 0.839798 0.839798 -0.456116 0.973432 -0.658126
37 1 15.1164 0 0 0.586901 0.45343 -1.10696
38 1 15.9562 0.839798 0 -1.46423 -1.53432 0.981569
39 1 15.9562 0 0.839798 0.213112 -1.36145 0.309209
40 1 15.1164 0.839798 0.839798 -1.38029 1.25195 -1.3093
41 1 16.796 0 0 -0.517564 1.65523 0.266543
44 1 16.796 0.839798 0.839798 -0.168552 -0.269572 -0.884744
42 1 17.6358 0.839798 0 -0.124294 1.43752 -0.238912
43 1 17.6358 0 0.839798 -1.24526 -0.688596 -0.0129402
45 1 18.4756 0 0 0.666939 0.0882282 -0.770114
48 1 18.4756 0.839798 0.839798 0.412939 0.156536 -0.619204
46 1 19.3154 0.839798 0 -0.784168 1.43398 -0.755092
47 1 19.3154 0 0.839798 0.447025 0.836624 -0.747017
49 1 20.1552 0 0 0.597933 -1.40234 -0.342094
52 1 20.1552 0.839798 0.839798 0.989956 1.69582 -0.863471
50 1 20.995 0.839798 0 -1.15999 0.0697453 0.703782
51 1 20.995 0 0.839798 0.31502 1.7032 -1.65704
53 1 21.8348 0 0 0.557432 1.08781 0.452871
56 1 21.8348 0.839798 0.839798 0.85082 0.635309 0.483894
54 1 22.6745 0.839798 0 -1.11104 0.881873 0.269785
55 1 22.6745 0 0.839798 1.12382 0.866983 -0.297332
57 1 23.5143 0 0 0.976392 -0.863165 -0.105662
58 1 24.3541 0.839798 0 -1.28426 -0.697203 0.986791
59 1 24.3541 0 0.839798 1.53536 -1.03188 1.0944
60 1 23.5143 0.839798 0.839798 0.860555 1.25663 1.08092
61 1 25.1939 0 0 0.620792 1.31002 0.195522
62 1 26.0337 0.839798 0 0.341297 -0.548503 -0.218471
63 1 26.0337 0 0.839798 1.08986 -1.25411 1.12596
64 1 25.1939 0.839798 0.839798 -1.50255 -0.448274 -1.08616
65 1 26.8735 0 0 0.0192439 0.178058 0.433219
66 1 27.7133 0.839798 0 -0.234606 -0.696372 1.08446
67 1 27.7133 0 0.839798 1.67321 -0.724467 0.519097
68 1 26.8735 0.839798 0.839798 0.577498 -1.52085 -1.4961
69 1 28.5531 0 0 -0.0802667 -0.743305 -0.501684
72 1 28.5531 0.839798 0.839798 1.40432 -1.24 -1.02836
70 1 29.3929 0.839798 0 1.20893 -1.02276 -1.71631
71 1 29.3929 0 0.839798 -0.495187 -0.261019 0.673831
73 1 30.2327 0 0 -1.43574 -1.16103 1.44321
76 1 30.2327 0.839798 0.839798 -0.250399 0.90484 1.33026
74 1 31.0725 0.839798 0 -0.36754 -1.56108 -1.36411
75 1 31.0725 0 0.839798 -0.916996 -1.10053 -1.435
77 1 31.9123 0 0 1.56963 -0.644055 -0.493764
80 1 31.9123 0.839798 0.839798 -1.5901 -1.43564 -1.5767
78 1 32.7521 0.839798 0 -0.966479 -0.459874 1.62852
79 1 32.7521 0 0.839798 1.71724 0.691424 0.309269
81 1 0 1.6796 0 0.622402 0.637611 1.01677
82 1 0.839798 2.51939 0 1.23376 0.157669 1.08846
83 1 0.839798 1.6796 0.839798 0.414861 1.25448 -0.515438
84 1 0 2.51939 0.839798 0.933116 0.0701608 0.751514
85 1 1.6796 1.6796 0 0.717412 -1.26245 -0.393348
86 1 2.51939 2.51939 0 -1.39065 0.568515 1.48044
87 1 2.51939 1.6796 0.839798 0.229747 0.790095 0.995469
88 1 1.6796 2.51939 0.839798 0.194582 -0.679679 0.733118
89 1 3.35919 1.6796 0 0.247076 0.733989 1.30235
90 1 4.19899 2.51939 0 1.30586 1.62928 1.06538
91 1 4.19899 1.6796 0.839798 -1.08264 -0.392183 -1.64777
92 1 3.35919 2.51939 0.839798 0.859573 -1.37561 1.63397
93 1 5.03879 1.6796 0 0.806469 0.836218 -0.627938
96 1 5.03879 2.51939 0.839798 0.779177 -0.0965183 1.48182
94 1 5.87859 2.51939 0 -0.133906 -0.587571 -1.37902
95 1 5.87859 1.6796 0.839798 1.72209 -1.16823 -1.70621
97 1 6.71838 1.6796 0 0.188489 0.95272 1.48535
100 1 6.71838 2.51939 0.839798 0.232733 -1.03879 -0.671356
98 1 7.55818 2.51939 0 1.04095 -1.27699 1.51605
99 1 7.55818 1.6796 0.839798 -1.106 -1.11784 -0.903615
101 1 8.39798 1.6796 0 1.25059 -1.24416 -1.59479
104 1 8.39798 2.51939 0.839798 -1.63122 0.984234 0.548971
102 1 9.23778 2.51939 0 -0.525364 -1.12356 0.0244255
103 1 9.23778 1.6796 0.839798 1.47781 -0.730146 -1.27809
105 1 10.0776 1.6796 0 -0.732708 -0.664661 -0.023921
108 1 10.0776 2.51939 0.839798 0.875989 0.547627 0.677541
106 1 10.9174 2.51939 0 -0.306743 0.688497 -0.33107
107 1 10.9174 1.6796 0.839798 -0.961501 -0.0242545 -1.23269
109 1 11.7572 1.6796 0 -0.481844 -1.41955 -1.70617
110 1 12.597 2.51939 0 1.34732 1.42857 -1.40023
111 1 12.597 1.6796 0.839798 -0.426484 -0.389023 -0.564998
112 1 11.7572 2.51939 0.839798 0.965462 -0.768008 0.46312
113 1 13.4368 1.6796 0 -0.562531 -1.55553 1.73633
114 1 14.2766 2.51939 0 -1.3917 0.348936 0.921176
115 1 14.2766 1.6796 0.839798 0.482609 -1.06592 1.23119
116 1 13.4368 2.51939 0.839798 1.25766 -0.478027 1.70574
117 1 15.1164 1.6796 0 -0.259335 -0.159452 1.47716
118 1 15.9562 2.51939 0 -0.957852 -1.12571 -1.48039
119 1 15.9562 1.6796 0.839798 1.39193 -1.39725 -1.42228
120 1 15.1164 2.51939 0.839798 1.05179 0.481489 -1.14932
121 1 16.796 1.6796 0 0.105144 1.23882 -0.0326773
124 1 16.796 2.51939 0.839798 -0.782509 1.58129 -0.959399
122 1 17.6358 2.51939 0 -0.0810864 -0.648943 0.587717
123 1 17.6358 1.6796 0.839798 0.520801 -0.752249 -1.70372
125 1 18.4756 1.6796 0 -0.876787 -1.55941 -1.07702
128 1 18.4756 2.51939 0.839798 -0.223371 0.8635 0.130903
126 1 19.3154 2.51939 0 0.569297 -0.645384 1.4515
127 1 19.3154 1.6796 0.839798 -1.1686 1.05783 -0.528634
129 1 20.1552 1.6796 0 -1.68356 -1.34715 1.4436
132 1 20.1552 2.51939 0.839798 -1.22222 1.55522 1.36034
130 1 20.995 2.51939 0 -0.342277 -0.0445397 1.16175
131 1 20.995 1.6796 0.839798 -1.48259 -1.34691 -1.54738
133 1 21.8348 1.6796 0 0.418596 1.5938 1.15098
136 1 21.8348 2.51939 0.839798 -0.557578 -1.54563 -1.71515
134 1 22.6745 2.51939 0 0.326164 -1.72497 1.18556
135 1 22.6745 1.6796 0.839798 -0.58176 1.25203 0.0497296
137 1 23.5143 1.6796 0 0.246421 0.127852 -0.663405
138 1 24.3541 2.51939 0 -0.849582 1.37284 1.70667
139 1 24.3541 1.6796 0.839798 1.4244 -0.196091 -0.480283
140 1 23.5143 2.51939 0.839798 -1.52347 1.58829 -1.20497
141 1 25.1939 1.6796 0 0.110856 0.130616 0.719122
142 1 26.0337 2.51939 0 1.37134 -0.712855 1.49178
143 1 26.0337 1.6796 0.839798 -1.62366 -0.240912 -1.24129
144 1 25.1939 2.51939 0.839798 0.0389258 1.51613 -0.22923
145 1 26.8735 1.6796 0 0.0910552 0.263317 1.11592
146 1 27.7133 2.51939 0 1.5235 0.879526 -1.02397
147 1 27.7133 1.6796 0.839798 1.68771 0.180407 -1.68971
148 1 26.8735 2.51939 0.839798 -0.63061 -1.34346 1.02437
149 1 28.5531 1.6796 0 1.26898 -0.838799 0.189558
152 1 28.5531 2.51939 0.839798 0.0770866 1.31327 -0.721471
150 1 29.3929 2.51939 0 1.70526 0.414792 1.48431
151 1 29.3929 1.6796 0.839798 -0.25332 0.356184 1.36937
153 1 30.2327 1.6796 0 0.0596382 -0.63342 1.38213
156 1 30.2327 2.51939 0.839798 0.409051 0.706997 -1.50359
154 1 31.0725 2.51939 0 -1.6421 -1.55944 -1.5999
155 1 31.0725 1.6796 0.839798 0.0792421 -0.607365 -1.1415
157 1 31.9123 1.6796 0 0.723281 0.281474 1.10395
160 1 31.9123 2.51939 0.839798 -1.62819 -0.159577 -0.613924
158 1 32.7521 2.51939 0 1.12697 -1.65502 1.14767
159 1 32.7521 1.6796 0.839798 -1.22945 1.43119 0.874574
161 1 0 3.35919 0 1.42438 -0.398892 0.0386853
162 1 0.839798 4.19899 0 0.75456 -1.1457 -0.995061
163 1 0.839798 3.35919 0.839798 -1.10028 1.48388 -1.33307
164 1 0 4.19899 0.839798 0.315726 -0.302007 -1.54964
165 1 1.6796 3.35919 0 -1.69826 1.37013 1.1845
166 1 2.51939 4.19899 0 -1.31248 0.115335 0.508871
167 1 2.51939 3.35919 0.839798 -1.30776 -0.437262 0.183876
168 1 1.6796 4.19899 0.839798 -0.13313 -1.42726 0.447436
169 1 3.35919 3.35919 0 -1.62052 0.404742 -0.954889
170 1 4.19899 4.19899 0 -0.0206159 -0.431362 -1.21391
171 1 4.19899 3.35919 0.839798 -0.171218 0.00513234 0.222992
172 1 3.35919 4.19899 0.839798 0.594888 -0.554349 -1.36523
173 1 5.03879 3.35919 0 1.11731 -1.07957 0.645071
176 1 5.03879 4.19899 0.839798 -0.322315 -0.934573 -0.348595
174 1 5.87859 4.19899 0 1.13293 1.36217 -0.813698
175 1 5.87859 3.35919 0.839798 0.362918 -1.308 0.527896
177 1 6.71838 3.35919 0 -0.471615 0.562338 1.71166
180 1 6.71838 4.19899 0.839798 1.15722 0.39463 -0.978061
178 1 7.55818 4.19899 0 -0.0292664 -0.165509 0.256798
179 1 7.55818 3.35919 0.839798 -1.12991 -0.651041 0.00620236
181 1 8.39798 3.35919 0 0.0519688 -1.22005 1.29285
184 1 8.39798 4.19899 0.839798 0.626037 -0.700193 -0.725826
182 1 9.23778 4.19899 0 -0.60502 -1.2692 0.668659
183 1 9.23778 3.35919 0.839798 -0.148204 -1.6109 0.645628
185 1 10.0776 3.35919 0 -1.41266 -1.64914 -0.506712
188 1 10.0776 4.19899 0.839798 0.810226 1.55102 -0.0235389
186 1 10.9174 4.19899 0 1.32793 1.58735 0.256895
187 1 10.9174 3.35919 0.839798 -0.606195 -0.207801 0.385601
189 1 11.7572 3.35919 0 -1.32389 -0.977401 1.18175
190 1 12.597 4.19899 0 0.858365 -0.877563 0.663115
191 1 12.597 3.35919 0.839798 -1.17754 -0.0515135 -1.60498
192 1 11.7572 4.19899 0.839798 0.178712 -0.377486 -0.85936
193 1 13.4368 3.35919 0 0.645525 0.843455 -0.38464
194 1 14.2766 4.19899 0 -0.420594 1.49208 1.25809
195 1 14.2766 3.35919 0.839798 -1.35791 -0.561625 1.20461
196 1 13.4368 4.19899 0.839798 0.985124 0.246403 1.22904
197 1 15.1164 3.35919 0 1.55972 -0.778918 0.899716
198 1 15.9562 4.19899 0 -1.69235 0.0351765 -1.14629
199 1 15.9562 3.35919 0.839798 -1.51227 -0.801631 0.649297
200 1 15.1164 4.19899 0.839798 1.6213 0.808117 -1.27923
201 1 16.796 3.35919 0 -1.31023 -0.245779 0.192083
204 1 16.796 4.19899 0.839798 1.08618 -0.690702 -0.724842
202 1 17.6358 4.19899 0 -1.31771 -1.07443 0.29475
203 1 17.6358 3.35919 0.839798 0.939617 -1.64183 0.993943
205 1 18.4756 3.35919 0 0.407694 -1.30006 -1.34656
208 1 18.4756 4.19899 0.839798 1.12513 -1.44868 1.21178
206 1 19.3154 4.19899 0 -0.324004 -1.58015 0.650862
207 1 19.3154 3.35919 0.839798 0.876579 0.068973 1.59488
209 1 20.1552 3.35919 0 -1.30608 0.122684 -0.821552
212 1 20.1552 4.19899 0.839798 -1.4364 1.6271 -0.956371
210 1 20.995 4.19899 0 -0.95257 0.950443 1.37314
211 1 20.995 3.35919 0.839798 0.38286 0.942407 1.56133
213 1 21.8348 3.35919 0 -1.52126 0.583112 0.587757
216 1 21.8348 4.19899 0.839798 0.121822 0.633495 1.20329
214 1 22.6745 4.19899 0 1.35376 -1.40308 1.17136
215 1 22.6745 3.35919 0.839798 -0.499507 -0.0294604 1.43804
217 1 23.5143 3.35919 0 -0.306243 -1.32474 0.0780712
218 1 24.3541 4.19899 0 0.662786 -0.354711 0.452671
219 1 24.3541 3.35919 0.839798 -1.58877 0.0411827 -0.770427
220 1 23.5143 4.19899 0.839798 -1.70005 -0.959335 -0.368157
221 1 25.1939 3.35919 0 -1.13217 -0.460403 -0.331924
222 1 26.0337 4.19899 0 -0.588562 1.36995 1.69672
223 1 26.0337 3.35919 0.839798 -0.00198916 0.512614 -1.70034
224 1 25.1939 4.19899 0.839798 1.07724 -1.6654 0.137283
225 1 26.8735 3.35919 0 1.68706 -0.299522 -1.39882
226 1 27.7133 4.19899 0 0.702945 -1.6471 -1.01167
227 1 27.7133 3.35919 0.839798 -1.32121 -0.980798 -0.440176
228 1 26.8735 4.19899 0.839798 -1.08904 -0.322586 -0.630744
229 1 28.5531 3.35919 0 -1.06917 0.714702 -0.335913
232 1 28.5531 4.19899 0.839798 -1.45516 -1.64456 0.181169
230 1 29.3929 4.19899 0 1.33495 1.63116 1.42409
231 1 29.3929 3.35919 0.839798 -0.400559 -1.63567 0.487535
233 1 30.2327 3.35919 0 0.69407 -1.69484 1.27259
236 1 30.2327 4.19899 0.839798 -1.40984 0.535937 -1.59134
234 1 31.0725 4.19899 0 0.729711 0.846716 -1.06143
235 1 31.0725 3.35919 0.839798 0.972494 -0.493818 -0.128815
237 1 31.9123 3.35919 0 -1.6103 -1.12857 -1.03029
240 1 31.9123 4.19899 0.839798 1.64029 0.928313 0.496146
238 1 32.7521 4.19899 0 -0.409979 -0.422964 1.21097
239 1 32.7521 3.35919 0.839798 0.93661 -0.171992 -1.20045
241 1 0 5.03879 0 -0.702722 0.456323 -1.02174
243 1 0.839798 5.03879 0.839798 -0.799268 0.81383 1.09993
245 1 1.6796 5.03879 0 0.702608 -0.380836 -1.67627
247 1 2.51939 5.03879 0.839798 0.814001 -0.890258 -1.15061
249 1 3.35919 5.03879 0 -0.153752 -1.21847 0.113195
251 1 4.19899 5.03879 0.839798 1.69364 -0.645043 0.235931
253 1 5.03879 5.03879 0 -1.36897 0.779547 0.590725
255 1 5.87859 5.03879 0.839798 -1.5367 1.24891 -0.424336
257 1 6.71838 5.03879 0 0.841116 0.53236 0.719922
259 1 7.55818 5.03879 0.839798 -0.748381 -0.507001 0.253114
261 1 8.39798 5.03879 0 0.991419 -1.47141 0.575248
263 1 9.23778 5.03879 0.839798 0.931132 1.39447 1.0365
265 1 10.0776 5.03879 0 -1.47554 -0.75047 0.455267
267 1 10.9174 5.03879 0.839798 -0.746147 -1.10992 0.386625
269 1 11.7572 5.03879 0 0.841344 0.899878 1.1742
271 1 12.597 5.03879 0.839798 -1.40745 -0.873928 -0.667741
273 1 13.4368 5.03879 0 1.63194 -0.738914 0.480008
275 1 14.2766 5.03879 0.839798 -1.4994 0.521558 -0.496863
277 1 15.1164 5.03879 0 1.28696 -0.356134 0.808718
279 1 15.9562 5.03879 0.839798 -0.899264 -1.33109 0.821727
281 1 16.796 5.03879 0 -1.67957 -0.101819 -0.910343
283 1 17.6358 5.03879 0.839798 -0.838646 1.36551 -0.0541084
285 1 18.4756 5.03879 0 -1.51303 0.306031 1.15533
287 1 19.3154 5.03879 0.839798 0.215494 0.532567 0.72673
289 1 20.1552 5.03879 0 -0.444417 -0.0849933 0.975646
291 1 20.995 5.03879 0.839798 1.28614 -0.280391 1.08342
293 1 21.8348 5.03879 0 -1.38677 0.0061106 -0.675278
295 1 22.6745 5.03879 0.839798 1.28331 0.710012 0.603288
297 1 23.5143 5.03879 0 -1.25063 -0.898036 -0.103721
299 1 24.3541 5.03879 0.839798 0.653639 -1.49966 0.918238
301 1 25.1939 5.03879 0 0.175727 1.47678 0.765267
303 1 26.0337 5.03879 0.839798 0.113975 0.532974 0.642311
305 1 26.8735 5.03879 0 1.67624 1.68601 0.818651
307 1 27.7133 5.03879 0.839798 1.71486 -1.18582 0.898678
309 1 28.5531 5.03879 0 0.565171 -0.620539 -0.607167
311 1 29.3929 5.03879 0.839798 -0.0371246 -0.456617 0.880648
313 1 30.2327 5.03879 0 1.49452 -0.673058 1.03731
315 1 31.0725 5.03879 0.839798 1.34287 -0.612043 -0.00302281
317 1 31.9123 5.03879 0 1.50432 1.01585 1.31306
319 1 32.7521 5.03879 0.839798 1.52715 -0.199973 0.164305
242 1 0.839798 5.87859 0 -1.53341 1.07988 -1.04115
244 1 0 5.87859 0.839798 1.71098 -0.614813 -1.46269
321 1 0 6.71838 0 -0.566377 -0.299446 -0.121106
323 1 0.839798 6.71838 0.839798 1.23042 -0.50014 1.12551
246 1 2.51939 5.87859 0 0.354703 -0.652807 1.53105
248 1 1.6796 5.87859 0.839798 -0.93001 -1.34854 -1.12068
325 1 1.6796 6.71838 0 -1.61048 -0.757789 -1.16929
327 1 2.51939 6.71838 0.839798 -1.70438 -0.935843 -0.882522
250 1 4.19899 5.87859 0 1.27483 0.325605 0.671124
252 1 3.35919 5.87859 0.839798 -0.930345 -0.0473106 -0.326409
329 1 3.35919 6.71838 0 0.666549 0.472506 0.465849
331 1 4.19899 6.71838 0.839798 1.52924 0.13906 0.440463
256 1 5.03879 5.87859 0.839798 -0.532159 -0.881006 -1.7219
333 1 5.03879 6.71838 0 -0.596295 -0.279158 0.989265
254 1 5.87859 5.87859 0 1.72811 -0.456469 -0.107578
260 1 6.71838 5.87859 0.839798 0.107791 0.634051 0.139117
335 1 5.87859 6.71838 0.839798 1.03772 -0.104401 0.779382
337 1 6.71838 6.71838 0 0.148026 0.613969 -0.989199
258 1 7.55818 5.87859 0 0.730094 0.33737 0.733153
264 1 8.39798 5.87859 0.839798 0.0623176 -0.685483 0.289917
339 1 7.55818 6.71838 0.839798 1.69367 -0.205189 -0.799618
341 1 8.39798 6.71838 0 1.58858 -1.28113 1.15736
262 1 9.23778 5.87859 0 -0.145917 -1.32154 -1.63183
268 1 10.0776 5.87859 0.839798 0.148424 0.375848 -1.07731
343 1 9.23778 6.71838 0.839798 -1.70354 -0.750729 -0.430056
345 1 10.0776 6.71838 0 -0.235951 0.968736 0.167515
266 1 10.9174 5.87859 0 1.52862 0.251114 0.629731
347 1 10.9174 6.71838 0.839798 -0.631885 1.51913 1.65834
270 1 12.597 5.87859 0 0.0826416 1.04065 -1.54918
272 1 11.7572 5.87859 0.839798 0.221344 -1.71108 -1.20575
349 1 11.7572 6.71838 0 -1.36108 1.68574 -0.347477
351 1 12.597 6.71838 0.839798 1.28519 1.01344 -1.04659
274 1 14.2766 5.87859 0 -0.433465 0.187509 -0.249002
276 1 13.4368 5.87859 0.839798 -1.24933 0.299744 -0.476551
353 1 13.4368 6.71838 0 1.45124 0.187284 -0.550811
355 1 14.2766 6.71838 0.839798 0.411915 0.283011 -0.808093
278 1 15.9562 5.87859 0 -1.54571 -1.097 -1.02081
280 1 15.1164 5.87859 0.839798 0.889136 -0.431062 0.349111
357 1 15.1164 6.71838 0 0.630803 -0.363419 -0.252353
359 1 15.9562 6.71838 0.839798 -0.563975 -1.54331 -0.983114
284 1 16.796 5.87859 0.839798 0.382689 1.54172 -0.144574
361 1 16.796 6.71838 0 1.10455 -0.595028 1.59301
282 1 17.6358 5.87859 0 -1.71115 -0.271974 0.357359
288 1 18.4756 5.87859 0.839798 -0.562779 1.21079 0.483824
363 1 17.6358 6.71838 0.839798 0.615585 0.495378 -0.0748832
365 1 18.4756 6.71838 0 -0.970012 -0.875658 1.47363
286 1 19.3154 5.87859 0 1.23272 0.0590326 0.988299
292 1 20.1552 5.87859 0.839798 0.394857 1.43449 0.895942
367 1 19.3154 6.71838 0.839798 1.54398 1.71245 1.30102
369 1 20.1552 6.71838 0 0.569107 -0.363135 1.04802
290 1 20.995 5.87859 0 1.375 -1.46087 0.845534
296 1 21.8348 5.87859 0.839798 0.00150415 0.269403 -0.63509
371 1 20.995 6.71838 0.839798 0.960978 0.170726 -1.41086
373 1 21.8348 6.71838 0 0.393863 -1.40829 0.274666
294 1 22.6745 5.87859 0 -1.6133 0.496456 0.70476
375 1 22.6745 6.71838 0.839798 -0.307433 -0.512256 -1.36001
298 1 24.3541 5.87859 0 1.34747 0.451232 0.103439
300 1 23.5143 5.87859 0.839798 -0.439373 1.46476 -0.170088
377 1 23.5143 6.71838 0 -1.52602 0.424195 0.000277371
379 1 24.3541 6.71838 0.839798 -1.03606 -1.14322 -0.953834
302 1 26.0337 5.87859 0 0.789182 1.59005 0.597732
304 1 25.1939 5.87859 0.839798 0.216168 1.45428 0.576563
381 1 25.1939 6.71838 0 -1.2228 -1.22652 -0.00968589
383 1 26.0337 6.71838 0.839798 0.570471 -1.71389 0.129239
306 1 27.7133 5.87859 0 -0.706472 -0.147628 -0.93142
308 1 26.8735 5.87859 0.839798 0.571187 -0.0914675 -0.32931
385 1 26.8735 6.71838 0 0.102333 -0.925433 0.668683
387 1 27.7133 6.71838 0.839798 -1.55601 -0.799113 1.3537
312 1 28.5531 5.87859 0.839798 0.413258 -1.40818 -1.30543
389 1 28.5531 6.71838 0 0.953261 -1.21937 -1.19891
310 1 29.3929 5.87859 0 0.529823 -1.69608 1.24097
316 1 30.2327 5.87859 0.839798 -1.15413 1.46374 0.0691866
391 1 29.3929 6.71838 0.839798 -1.07127 0.0467413 -0.98125
393 1 30.2327 6.71838 0 -0.386696 -0.989381 0.964805
314 1 31.0725 5.87859 0 1.087 -0.647782 -0.710976
320 1 31.9123 5.87859 0.839798 -1.59964 1.13919 0.456344
395 1 31.0725 6.71838 0.839798 0.884584 -0.650373 0.823608
397 1 31.9123 6.71838 0 1.13382 -1.04026 -0.975851
318 1 32.7521 5.87859 0 -1.09481 -0.19834 -0.132116
399 1 32.7521 6.71838 0.839798 -0.530984 1.52889 -0.817561
322 1 0.839798 7.55818 0 1.13209 1.15474 -1.6964
324 1 0 7.55818 0.839798 1.37292 1.66251 1.14607
401 1 0 8.39798 0 1.22871 -1.46911 1.1791
403 1 0.839798 8.39798 0.839798 -1.70209 -0.625585 1.2932
326 1 2.51939 7.55818 0 -1.00425 -0.673698 0.690183
328 1 1.6796 7.55818 0.839798 1.18782 1.38942 -0.539332
405 1 1.6796 8.39798 0 0.987298 -1.36797 -1.71426
407 1 2.51939 8.39798 0.839798 1.14358 0.0380494 -1.41318
330 1 4.19899 7.55818 0 0.336566 -0.29506 0.767166
332 1 3.35919 7.55818 0.839798 1.27715 1.15608 0.0197237
409 1 3.35919 8.39798 0 1.48165 1.53011 -1.04408
411 1 4.19899 8.39798 0.839798 -1.63602 0.106068 0.823674
336 1 5.03879 7.55818 0.839798 1.50536 1.07092 1.00349
413 1 5.03879 8.39798 0 1.03308 1.72314 0.605201
334 1 5.87859 7.55818 0 0.14427 -0.084136 1.51278
340 1 6.71838 7.55818 0.839798 -0.820494 1.26827 -1.02527
415 1 5.87859 8.39798 0.839798 1.22438 -1.43965 0.450805
417 1 6.71838 8.39798 0 0.8059 1.6799 -1.36594
338 1 7.55818 7.55818 0 -1.64754 0.577474 -0.537785
344 1 8.39798 7.55818 0.839798 1.72928 -1.69317 1.55374
419 1 7.55818 8.39798 0.839798 -0.548767 0.899058 1.26799
421 1 8.39798 8.39798 0 1.51354 -0.0185012 -1.64026
342 1 9.23778 7.55818 0 -0.868402 0.642175 1.42208
348 1 10.0776 7.55818 0.839798 -0.556959 -1.53823 1.20913
423 1 9.23778 8.39798 0.839798 -0.672068 -1.05562 0.841506
425 1 10.0776 8.39798 0 -1.60616 -0.948418 -0.688561
346 1 10.9174 7.55818 0 0.299371 -1.2108 0.642664
427 1 10.9174 8.39798 0.839798 -1.40761 -0.133993 -0.649098
350 1 12.597 7.55818 0 -1.04836 0.221893 -1.50541
352 1 11.7572 7.55818 0.839798 -0.208941 0.633074 1.06358
429 1 11.7572 8.39798 0 -0.0546367 -0.00627624 -0.783704
431 1 12.597 8.39798 0.839798 -1.01501 -1.21686 -0.571757
354 1 14.2766 7.55818 0 -1.12587 1.36974 1.6964
356 1 13.4368 7.55818 0.839798 1.38659 -1.01164 1.38084
433 1 13.4368 8.39798 0 -1.50157 -1.32605 -1.23544
435 1 14.2766 8.39798 0.839798 -1.51174 1.13273 -0.551412
358 1 15.9562 7.55818 0 -0.469898 1.6779 -0.299263
360 1 15.1164 7.55818 0.839798 -1.22962 -1.49524 -0.983747
437 1 15.1164 8.39798 0 0.0111296 -0.949764 0.971281
439 1 15.9562 8.39798 0.839798 -0.0392203 -0.999591 -0.695785
364 1 16.796 7.55818 0.839798 0.376352 -0.925979 -1.55783
441 1 16.796 8.39798 0 1.67178 -0.548884 0.317202
362 1 17.6358 7.55818 0 0.426661 -1.56237 1.25401
368 1 18.4756 7.55818 0.839798 0.947187 0.743094 1.74174
443 1 17.6358 8.39798 0.839798 1.4428 0.491647 -0.363505
445 1 18.4756 8.39798 0 -1.16838 1.35131 0.49756
366 1 19.3154 7.55818 0 1.01993 -0.79853 0.739013
372 1 20.1552 7.55818 0.839798 -0.985005 0.292249 -1.60297
447 1 19.3154 8.39798 0.839798 0.829142 0.4176 0.131056
449 1 20.1552 8.39798 0 -0.73579 -0.444394 1.70662
370 1 20.995 7.55818 0 0.0130433 0.0026439 0.0151708
376 1 21.8348 7.55818 0.839798 0.406582 0.821535 -1.18198
451 1 20.995 8.39798 0.839798 0.363372 -0.600535 -0.791332
453 1 21.8348 8.39798 0 -1.26591 -1.03093 -0.369119
374 1 22.6745 7.55818 0 0.883879 1.38232 1.5755
455 1 22.6745 8.39798 0.839798 -0.516298 -1.33725 1.22833
378 1 24.3541 7.55818 0 -0.856331 -1.08817 1.68991
380 1 23.5143 7.55818 0.839798 -0.0989849 0.242673 0.954721
457 1 23.5143 8.39798 0 -1.49058 -0.482738 -1.17271
459 1 24.3541 8.39798 0.839798 -0.982736 0.271652 -0.972698
382 1 26.0337 7.55818 0 0.482902 0.386744 1.72815
384 1 25.1939 7.55818 0.839798 -0.609294 -0.278164 0.359152
461 1 25.1939 8.39798 0 -0.82865 -0.565447 -0.607874
463 1 26.0337 8.39798 0.839798 1.50134 -0.461696 -1.24624
386 1 27.7133 7.55818 0 -0.275262 -0.807319 -1.32471
388 1 26.8735 7.55818 0.839798 0.934337 -0.225437 -1.25881
465 1 26.8735 8.39798 0 -0.277465 0.306509 -1.22475
467 1 27.7133 8.39798 0.839798 -0.0248579 1.10106 1.19636
392 1 28.5531 7.55818 0.839798 -1.09308 1.06872 -1.29709
469 1 28.5531 8.39798 0 -1.69678 -1.58982 1.07682
390 1 29.3929 7.55818 0 -0.464212 0.147397 -1.61591
396 1 30.2327 7.55818 0.839798 0.475296 0.875514 0.911443
471 1 29.3929 8.39798 0.839798 1.5647 -0.260653 -0.114584
473 1 30.2327 8.39798 0 -1.22761 1.10759 -0.033103
394 1 31.0725 7.55818 0 0.0435217 -1.00458 -1.24654
400 1 31.9123 7.55818 0.839798 -1.5701 -1.67599 -0.936798
475 1 31.0725 8.39798 0.839798 1.60008 1.3113 0.902313
477 1 31.9123 8.39798 0 -0.65258 0.485826 -1.08729
398 1 32.7521 7.55818 0 0.772048 1.46702 -0.304245
479 1 32.7521 8.39798 0.839798 0.270554 -0.0134126 0.653326
402 1 0.839798 9.23778 0 0.740015 0.613911 1.51496
404 1 0 9.23778 0.839798 -0.893401 0.100496 0.810797
481 1 0 10.0776 0 -0.854339 1.18046 0.47383
483 1 0.839798 10.0776 0.839798 -0.591105 0.244938 0.871183
406 1 2.51939 9.23778 0 0.260428 -0.271277 1.67553
408 1 1.6796 9.23778 0.839798 0.180547 -0.734546 1.05556
485 1 1.6796 10.0776 0 0.0669865 1.48972 -0.15813
487 1 2.51939 10.0776 0.839798 0.405421 -1.34648 -1.16811
410 1 4.19899 9.23778 0 -0.98305 -1.52663 -1.47727
412 1 3.35919 9.23778 0.839798 1.35072 -0.405861 0.823637
489 1 3.35919 10.0776 0 -1.10871 -1.49738 1.18075
491 1 4.19899 10.0776 0.839798 0.833047 0.154349 0.78265
416 1 5.03879 9.23778 0.839798 1.11691 -0.876489 1.37376
493 1 5.03879 10.0776 0 -1.2491 0.596558 1.17092
414 1 5.87859 9.23778 0 0.554249 -0.391792 1.44934
420 1 6.71838 9.23778 0.839798 0.46965 -0.388015 -0.951054
495 1 5.87859 10.0776 0.839798 1.46446 0.401952 0.693368
497 1 6.71838 10.0776 0 -1.34714 0.224914 0.730302
418 1 7.55818 9.23778 0 1.66815 0.899766 -0.713433
424 1 8.39798 9.23778 0.839798 -0.462704 1.21286 0.546637
499 1 7.55818 10.0776 0.839798 -1.43423 -0.0687779 -0.459387
501 1 8.39798 10.0776 0 -0.605731 0.646332 -1.52246
422 1 9.23778 9.23778 0 0.866936 0.985647 0.0278765
428 1 10.0776 9.23778 0.839798 0.29694 -0.450624 1.03677
503 1 9.23778 10.0776 0.839798 0.970573 -1.56426 0.626706
505 1 10.0776 10.0776 0 0.559007 -0.181144 1.03467
426 1 10.9174 9.23778 0 0.324315 -1.59117 -0.832855
507 1 10.9174 10.0776 0.839798 -1.32705 1.35437 -0.084151
430 1 12.597 9.23778 0 0.223103 0.104838 0.948633
432 1 11.7572 9.23778 0.839798 1.28448 -0.554619 1.04255
509 1 11.7572 10.0776 0 -0.462979 0.069881 -0.483825
511 1 12.597 10.0776 0.839798 -0.885353 0.118665 0.997778
434 1 14.2766 9.23778 0 1.42699 -1.70771 -0.102415
436 1 13.4368 9.23778 0.839798 -1.31609 -1.68738 -1.66082
513 1 13.4368 10.0776 0 -0.497808 0.779129 0.49392
515 1 14.2766 10.0776 0.839798 -1.36273 1.62177 -0.307734
438 1 15.9562 9.23778 0 0.728741 -1.59309 1.58251
440 1 15.1164 9.23778 0.839798 1.32015 -0.890798 0.167642
517 1 15.1164 10.0776 0 0.0190474 0.343761 0.642657
519 1 15.9562 10.0776 0.839798 0.73877 0.496878 0.858453
444 1 16.796 9.23778 0.839798 -0.0469758 0.436042 1.43344
521 1 16.796 10.0776 0 0.64331 -1.70074 -0.83653
442 1 17.6358 9.23778 0 1.5543 1.72864 -0.534973
448 1 18.4756 9.23778 0.839798 -0.0241719 -1.24203 -0.47851
523 1 17.6358 10.0776 0.839798 -0.0779903 -0.63251 -0.653666
525 1 18.4756 10.0776 0 0.692229 -1.41595 -0.048718
446 1 19.3154 9.23778 0 0.662128 -1.01662 0.879262
452 1 20.1552 9.23778 0.839798 -1.16326 0.733346 0.909903
527 1 19.3154 10.0776 0.839798 -0.293817 -0.547923 -0.869799
529 1 20.1552 10.0776 0 1.40457 -0.4393 0.615769
450 1 20.995 9.23778 0 0.566135 1.70729 1.17083
456 1 21.8348 9.23778 0.839798 -1.6309 -0.589709 0.82389
531 1 20.995 10.0776 0.839798 0.712224 1.706 0.325508
533 1 21.8348 10.0776 0 -0.222101 1.40071 -1.51358
454 1 22.6745 9.23778 0 -0.331021 -1.60279 1.56261
535 1 22.6745 10.0776 0.839798 -0.999617 0.926219 -0.0178136
458 1 24.3541 9.23778 0 -0.315607 0.822745 -1.65047
460 1 23.5143 9.23778 0.839798 1.19426 -1.32208 -0.333616
537 1 23.5143 10.0776 0 -1.11518 0.76759 0.768034
539 1 24.3541 10.0776 0.839798 1.23699 -0.96845 -0.974568
462 1 26.0337 9.23778 0 0.305722 1.49984 -0.0430849
464 1 25.1939 9.23778 0.839798 -1.20878 -1.36849 -0.0270811
541 1 25.1939 10.0776 0 -0.994944 -0.299514 -1.27459
543 1 26.0337 10.0776 0.839798 -0.357142 -0.190367 -1.37993
466 1 27.7133 9.23778 0 0.0835593 -0.875375 -0.710131
468 1 26.8735 9.23778 0.839798 0.398984 1.43345 0.730402
545 1 26.8735 10.0776 0 -1.65164 1.06114 -0.355083
547 1 27.7133 10.0776 0.839798 -1.30107 1.04585 -0.862317
472 1 28.5531 9.23778 0.839798 -0.806192 -1.11304 -0.00623367
549 1 28.5531 10.0776 0 0.259643 0.394685 -0.0586161
470 1 29.3929 9.23778 0 0.602383 0.562738 1.48705
476 1 30.2327 9.23778 0.839798 -1.03567 -1.65484 0.670216
551 1 29.3929 10.0776 0.839798 1.23121 -1.10435 0.253372
553 1 30.2327 10.0776 0 0.0438445 0.953732 1.15431
474 1 31.0725 9.23778 0 0.0126978 1.1312 1.35249
480 1 31.9123 9.23778 0.839798 1.56871 1.18484 1.31566
555 1 31.0725 10.0776 0.839798 -1.18164 0.3633 -0.421317
557 1 31.9123 10.0776 0 -1.16501 -0.971726 -0.549758
478 1 32.7521 9.23778 0 -1.16806 -0.209986 -1.66685
559 1 32.7521 10.0776 0.839798 -0.857889 0.475889 -1.63028
482 1 0.839798 10.9174 0 0.933062 -0.850125 0.571935
484 1 0 10.9174 0.839798 -0.040555 0.843456 -0.358231
486 1 2.51939 10.9174 0 -0.849564 1.67612 1.02433
488 1 1.6796 10.9174 0.839798 -0.932589 0.381521 0.638127
490 1 4.19899 10.9174 0 0.990305 0.617069 -0.911263
492 1 3.35919 10.9174 0.839798 -0.230385 0.881081 0.831116
496 1 5.03879 10.9174 0.839798 -1.29159 0.913374 -0.878403
494 1 5.87859 10.9174 0 0.681886 1.61124 -0.451703
500 1 6.71838 10.9174 0.839798 -1.5007 -0.619225 0.671359
498 1 7.55818 10.9174 0 -1.61941 -1.69788 -1.31051
504 1 8.39798 10.9174 0.839798 0.197831 -1.54863 -0.218284
502 1 9.23778 10.9174 0 -0.600507 -1.71002 -0.71473
508 1 10.0776 10.9174 0.839798 -1.63424 -1.14221 -1.3356
506 1 10.9174 10.9174 0 0.566064 0.512002 -1.57805
510 1 12.597 10.9174 0 0.0314154 0.134497 0.0437284
512 1 11.7572 10.9174 0.839798 0.744785 1.03368 -0.638347
514 1 14.2766 10.9174 0 -0.556897 -0.498495 1.0343
516 1 13.4368 10.9174 0.839798 -0.00333163 -1.24254 1.23872
518 1 15.9562 10.9174 0 0.677709 0.761641 1.35828
520 1 15.1164 10.9174 0.839798 0.496223 -1.14208 0.839218
524 1 16.796 10.9174 0.839798 -0.281818 -0.0249284 1.31388
522 1 17.6358 10.9174 0 0.936508 1.58906 1.29662
528 1 18.4756 10.9174 0.839798 -0.392322 1.56004 -0.978062
526 1 19.3154 10.9174 0 -1.14939 1.44998 1.19972
532 1 20.1552 10.9174 0.839798 1.71069 1.47197 -0.327859
530 1 20.995 10.9174 0 -0.761866 1.73682 1.56565
536 1 21.8348 10.9174 0.839798 1.07232 -1.22394 -1.70535
534 1 22.6745 10.9174 0 -0.566369 -0.168488 -1.26613
538 1 24.3541 10.9174 0 -1.36354 -1.47796 1.53172
540 1 23.5143 10.9174 0.839798 -1.38932 -1.27673 -1.1271
542 1 26.0337 10.9174 0 0.313605 -1.26771 1.37862
544 1 25.1939 10.9174 0.839798 0.701577 -0.362303 1.16658
546 1 27.7133 10.9174 0 0.201762 -1.37282 0.0407331