ITEM: TIMESTEP
0
ITEM: NUMBER OF ATOMS
32000
ITEM: BOX BOUNDS pp pp pp
0.0000000000000000e+00 7.2300000000000011e+01
0.0000000000000000e+00 7.2300000000000011e+01
0.0000000000000000e+00 7.2300000000000011e+01
ITEM: ATOMS id type x y z vx vy vz
1 1 0 0 0 -0.649355 -2.55414 -7.726
2 1 1.8075 1.8075 0 4.71993 7.8888 7.91764
3 1 1.8075 0 1.8075 -7.36826 4.84756 6.68172
4 1 0 1.8075 1.8075 1.1872 2.53887 4.51892
5 1 3.615 0 0 -5.55141 -3.0513 4.3087
6 1 5.4225 1.8075 0 3.66827 6.67471 -3.13509
7 1 5.4225 0 1.8075 5.16163 2.40708 0.741047
8 1 3.615 1.8075 1.8075 2.56428 0.80298 5.03342
9 1 7.23 0 0 1.67521 -4.01175 -7.22638
12 1 7.23 1.8075 1.8075 -7.20755 1.55275 7.08453
10 1 9.0375 1.8075 0 -5.34805 -5.31816 5.18049
11 1 9.0375 0 1.8075 7.12786 7.57975 -0.237568
13 1 10.845 0 0 -0.883534 6.81682 -0.812026
16 1 10.845 1.8075 1.8075 3.58113 5.64351 5.47803
14 1 12.6525 1.8075 0 -3.06774 -2.98902 1.10995
15 1 12.6525 0 1.8075 0.842205 -5.19721 1.70927
17 1 14.46 0 0 4.09277 -1.54683 -4.19752
20 1 14.46 1.8075 1.8075 -7.93788 -7.80528 -5.03571
18 1 16.2675 1.8075 0 3.26083 -0.70316 1.24908
19 1 16.2675 0 1.8075 3.58588 5.86552 -1.64189
21 1 18.075 0 0 -1.03323 4.39731 -4.28725
22 1 19.8825 1.8075 0 -7.28598 3.70752 -0.468607
23 1 19.8825 0 1.8075 1.69049 -1.75211 -2.15484
24 1 18.075 1.8075 1.8075 3.29045 3.94489 -4.00268
25 1 21.69 0 0 2.6903 2.93317 -2.07158
26 1 23.4975 1.8075 0 4.07652 -4.35863 1.10474
27 1 23.4975 0 1.8075 6.6925 -7.61743 2.34479
28 1 21.69 1.8075 1.8075 -6.87635 0.122694 -6.44949
29 1 25.305 0 0 -3.6452 -4.31673 5.43603
30 1 27.1125 1.8075 0 3.4222 6.99628 -7.18697
31 1 27.1125 0 1.8075 4.98088 2.98331 -2.64691
32 1 25.305 1.8075 1.8075 -1.47107 -4.7924 -3.35294
33 1 28.92 0 0 -2.60462 1.65962 5.72956
36 1 28.92 1.8075 1.8075 1.16049 -1.00154 -2.55634
34 1 30.7275 1.8075 0 5.20891 1.57161 5.89473
35 1 30.7275 0 1.8075 3.37291 5.81895 -4.81657
37 1 32.535 0 0 5.16194 7.60845 4.78451
40 1 32.535 1.8075 1.8075 -6.55635 1.47143 -7.33389
38 1 34.3425 1.8075 0 -3.23725 -4.32902 5.65431
39 1 34.3425 0 1.8075 -2.4549 4.49535 4.92271
41 1 36.15 0 0 0.736564 1.01598 5.66192
42 1 37.9575 1.8075 0 2.54659 5.70432 -6.49668
43 1 37.9575 0 1.8075 -7.23467 7.06163 -6.62044
44 1 36.15 1.8075 1.8075 -5.72126 5.83405 -5.63613
45 1 39.765 0 0 2.1812 5.2123 -3.63003
46 1 41.5725 1.8075 0 -4.50631 -0.593389 0.826693
47 1 41.5725 0 1.8075 -5.72755 -4.51491 -0.583544
48 1 39.765 1.8075 1.8075 5.32818 1.81871 6.97903
49 1 43.38 0 0 -0.930926 5.70469 -0.328173
50 1 45.1875 1.8075 0 -0.913514 -3.90649 -3.79928
51 1 45.1875 0 1.8075 2.4344 -2.77423 -0.189281
52 1 43.38 1.8075 1.8075 1.74871 6.39597 5.03553
53 1 46.995 0 0 -2.16549 0.568564 -5.47681
56 1 46.995 1.8075 1.8075 5.41349 3.85843 6.32755
54 1 48.8025 1.8075 0 -5.19229 3.61797 5.75618
55 1 48.8025 0 1.8075 -0.333429 -6.11734 -0.204098
57 1 50.61 0 0 -5.16629 -4.84871 4.80913
60 1 50.61 1.8075 1.8075 5.75957 -2.06815 -0.513472
58 1 52.4175 1.8075 0 5.1951 -7.70695 -6.92723
59 1 52.4175 0 1.8075 -4.83172 2.59427 -2.86275
61 1 54.225 0 0 -4.02211 -7.70432 5.58131
64 1 54.225 1.8075 1.8075 -7.50189 2.04161 -1.18425
62 1 56.0325 1.8075 0 -3.32057 -4.87287 -3.52334
63 1 56.0325 0 1.8075 3.40729 -4.95608 -2.24496
65 1 57.84 0 0 -3.46727 -4.66543 -0.941636
66 1 59.6475 1.8075 0 6.77528 -0.487213 3.61172
67 1 59.6475 0 1.8075 -6.5105 -7.3814 -7.80648
68 1 57.84 1.8075 1.8075 3.70651 -2.99047 -7.39447
69 1 61.455 0 0 1.01856 -0.147036 -5.98085
70 1 63.2625 1.8075 0 3.28764 4.48953 2.56536
71 1 63.2625 0 1.8075 -6.72254 -7.80735 7.82491
72 1 61.455 1.8075 1.8075 -5.9482 -6.34158 1.31223
73 1 65.07 0 0 -6.86486 2.33051 2.40063
76 1 65.07 1.8075 1.8075 -7.69105 4.43988 -4.69607
74 1 66.8775 1.8075 0 6.66293 4.41947 2.25554
75 1 66.8775 0 1.8075 -6.8805 -5.90529 0.290703
77 1 68.685 0 0 -2.95555 5.5 -4.41518
80 1 68.685 1.8075 1.8075 -2.30034 -6.87001 -3.27869
78 1 70.4925 1.8075 0 -6.94543 0.456403 2.50834
79 1 70.4925 0 1.8075 -0.789368 -1.35119 6.82378
81 1 0 3.615 0 -2.02623 2.67082 -4.82065
82 1 1.8075 5.4225 0 4.70743 4.56721 3.60362
83 1 1.8075 3.615 1.8075 -3.95032 5.80943 -5.73917
84 1 0 5.4225 1.8075 2.45645 2.01069 4.20021
85 1 3.615 3.615 0 -7.26794 4.72917 5.44902
86 1 5.4225 5.4225 0 4.89465 1.40191 1.38973
87 1 5.4225 3.615 1.8075 6.40761 -7.50565 3.83025
88 1 3.615 5.4225 1.8075 5.97519 -5.18178 6.49944
89 1 7.23 3.615 0 6.03176 6.99414 4.51677
92 1 7.23 5.4225 1.8075 -2.52763 6.97222 1.9292
90 1 9.0375 5.4225 0 -6.22301 4.32487 3.20448
91 1 9.0375 3.615 1.8075 6.09991 7.07243 0.02494
93 1 10.845 3.615 0 -3.06957 -1.90517 2.39592
96 1 10.845 5.4225 1.8075 -4.95237 -4.71937 -0.758789
94 1 12.6525 5.4225 0 -7.06451 3.58919 -0.861403
95 1 12.6525 3.615 1.8075 -6.30095 -1.26746 -1.63671
97 1 14.46 3.615 0 4.38654 4.3186 -6.80532
100 1 14.46 5.4225 1.8075 6.33934 6.35932 -6.46254
98 1 16.2675 5.4225 0 5.48712 0.474407 2.85406
99 1 16.2675 3.615 1.8075 5.56711 -7.32701 -0.373716
101 1 18.075 3.615 0 -6.59859 7.3701 7.68065
102 1 19.8825 5.4225 0 -4.41434 2.04778 7.09882
103 1 19.8825 3.615 1.8075 6.43762 3.77406 4.30997
104 1 18.075 5.4225 1.8075 4.89375 2.06815 -0.50493
105 1 21.69 3.615 0 -3.97659 -6.22062 -2.01109
106 1 23.4975 5.4225 0 3.88388 3.30684 -5.66968
107 1 23.4975 3.615 1.8075 4.38452 2.10398 -2.82485
108 1 21.69 5.4225 1.8075 -2.14354 3.6702 -7.30575
109 1 25.305 3.615 0 -1.96926 5.75114 0.90724
110 1 27.1125 5.4225 0 0.569515 -6.74446 6.90938
111 1 27.1125 3.615 1.8075 6.96536 -3.30633 -2.73826
112 1 25.305 5.4225 1.8075 -7.03716 1.84217 3.52565
113 1 28.92 3.615 0 4.37566 -3.60817 -1.00333
116 1 28.92 5.4225 1.8075 -3.72762 -5.60052 0.215212
114 1 30.7275 5.4225 0 -5.93958 -4.53635 4.96642
115 1 30.7275 3.615 1.8075 0.689856 -4.50931 -1.97748
117 1 32.535 3.615 0 5.59857 -3.57829 -7.88181
120 1 32.535 5.4225 1.8075 -0.79791 -1.73946 3.67176
118 1 34.3425 5.4225 0 4.72301 -4.02699 7.21236
119 1 34.3425 3.615 1.8075 5.5455 -4.67448 5.94061
121 1 36.15 3.615 0 4.64653 -0.881577 -6.67559
122 1 37.9575 5.4225 0 4.2296 7.3002 -5.71785
123 1 37.9575 3.615 1.8075 -6.69913 3.87652 -7.67525
124 1 36.15 5.4225 1.8075 5.09533 1.71793 -0.633737
125 1 39.765 3.615 0 3.28607 -5.98553 4.00331
126 1 41.5725 5.4225 0 3.99783 -6.44755 2.05438
127 1 41.5725 3.615 1.8075 -4.84132 0.39364 -2.40977
128 1 39.765 5.4225 1.8075 7.85072 2.80145 -4.65721
129 1 43.38 3.615 0 6.24599 -3.61071 3.97363
130 1 45.1875 5.4225 0 -5.62617 -2.74435 -7.07984
131 1 45.1875 3.615 1.8075 5.11887 -0.415338 2.59243
132 1 43.38 5.4225 1.8075 -3.17441 1.76714 -0.736549
133 1 46.995 3.615 0 -4.59623 -0.625507 1.89614
136 1 46.995 5.4225 1.8075 -0.756385 -3.78497 2.23744
134 1 48.8025 5.4225 0 -4.74362 3.8823 -6.06294
135 1 48.8025 3.615 1.8075 -5.52749 1.32223 -1.56645
137 1 50.61 3.615 0 -7.55597 -0.112348 4.32054
140 1 50.61 5.4225 1.8075 5.06881 1.3475 -6.37869
138 1 52.4175 5.4225 0 -1.3889 -7.74023 6.53942
139 1 52.4175 3.615 1.8075 -5.05053 -0.0906415 3.25879
141 1 54.225 3.615 0 -2.02347 1.29463 -4.08504
144 1 54.225 5.4225 1.8075 -6.14132 -6.85772 -3.46111
142 1 56.0325 5.4225 0 -5.98613 -7.45529 7.06373
143 1 56.0325 3.615 1.8075 -0.442307 -6.59551 -3.12118
145 1 57.84 3.615 0 5.49241 -6.01968 2.65258
146 1 59.6475 5.4225 0 4.70362 4.11572 3.6231
147 1 59.6475 3.615 1.8075 0.897983 -6.31686 3.08548
148 1 57.84 5.4225 1.8075 -4.00827 2.25515 -7.36536
149 1 61.455 3.615 0 -0.873284 4.09707 -7.55801
150 1 63.2625 5.4225 0 1.56689 4.79279 -7.05079
151 1 63.2625 3.615 1.8075 -1.45819 4.89816 -1.97314
152 1 61.455 5.4225 1.8075 -5.70852 -2.7292 -6.9914
153 1 65.07 3.615 0 -0.329135 2.41303 5.43233
156 1 65.07 5.4225 1.8075 3.98601 1.76857 7.39386
154 1 66.8775 5.4225 0 -1.47041 6.26709 2.536
155 1 66.8775 3.615 1.8075 7.09092 7.1737 -0.235403
157 1 68.685 3.615 0 -2.99879 -5.3642 -5.06574
160 1 68.685 5.4225 1.8075 -1.81044 2.36698 -5.04909
158 1 70.4925 5.4225 0 -7.59887 -5.18292 3.34281
159 1 70.4925 3.615 1.8075 -7.67502 3.4745 -3.53033
161 1 0 7.23 0 -6.00556 0.081454 0.38168
163 1 1.8075 7.23 1.8075 -0.273257 2.97629 6.7494
165 1 3.615 7.23 0 0.878393 -1.48395 2.66894
167 1 5.4225 7.23 1.8075 1.94091 7.20807 4.83785
169 1 7.23 7.23 0 -7.94759 3.8934 5.56332
171 1 9.0375 7.23 1.8075 -3.02567 4.20062 -1.16793
173 1 10.845 7.23 0 -0.920726 2.15537 1.89356
175 1 12.6525 7.23 1.8075 -5.41639 7.39453 4.7153
177 1 14.46 7.23 0 -7.23072 -6.11627 1.88903
179 1 16.2675 7.23 1.8075 0.288713 -1.45642 4.04073
181 1 18.075 7.23 0 3.00873 -6.23261 3.29452
183 1 19.8825 7.23 1.8075 -0.83845 0.948476 0.537114
185 1 21.69 7.23 0 -1.52075 3.32894 -0.132387
187 1 23.4975 7.23 1.8075 -5.973 6.3303 -0.952001
189 1 25.305 7.23 0 -1.36653 2.32749 -0.526748
191 1 27.1125 7.23 1.8075 -6.29401 4.14094 -1.99169
193 1 28.92 7.23 0 5.40629 -5.84123 -4.65911
195 1 30.7275 7.23 1.8075 -0.105836 1.07826 2.35771
197 1 32.535 7.23 0 -1.42503 5.41922 5.94952
199 1 34.3425 7.23 1.8075 -2.46363 0.923417 -7.02305
201 1 36.15 7.23 0 1.08509 4.56543 5.63281
203 1 37.9575 7.23 1.8075 -2.35711 -6.50396 -7.45531
205 1 39.765 7.23 0 -6.13035 2.54043 -1.09298
207 1 41.5725 7.23 1.8075 4.03163 4.91662 6.11942
209 1 43.38 7.23 0 6.37501 1.33618 -5.60777
211 1 45.1875 7.23 1.8075 5.36343 5.66396 -0.774983
213 1 46.995 7.23 0 -5.31947 -2.26572 3.6497
215 1 48.8025 7.23 1.8075 6.05824 6.61556 4.99081
217 1 50.61 7.23 0 0.402248 -2.24817 -3.6192
219 1 52.4175 7.23 1.8075 4.48204 2.60232 5.06184
221 1 54.225 7.23 0 0.0289852 -7.85424 -0.755071
223 1 56.0325 7.23 1.8075 6.62385 -0.239078 6.07088
225 1 57.84 7.23 0 -2.92719 4.86191 -6.63187
227 1 59.6475 7.23 1.8075 -2.51533 6.90907 6.46103
229 1 61.455 7.23 0 4.57755 1.14874 -6.22164
231 1 63.2625 7.23 1.8075 -0.701035 3.80502 -0.392583
233 1 65.07 7.23 0 -1.66996 -6.94165 1.74425
235 1 66.8775 7.23 1.8075 2.51556 -6.7782 -3.22806
237 1 68.685 7.23 0 -0.480425 4.99834 -4.39982
239 1 70.4925 7.23 1.8075 3.98654 -5.25132 -0.835504
162 1 1.8075 9.0375 0 -2.29601 2.36057 -1.32468
164 1 0 9.0375 1.8075 7.49808 -6.21634 6.28572
241 1 0 10.845 0 -6.72639 7.0486 -2.81134
243 1 1.8075 10.845 1.8075 0.874054 5.12715 -3.12178
166 1 5.4225 9.0375 0 -1.84375 -0.677013 -4.72717
168 1 3.615 9.0375 1.8075 -4.40655 5.63206 3.84331
245 1 3.615 10.845 0 6.1439 -1.31098 -1.37267
247 1 5.4225 10.845 1.8075 5.41725 3.47151 -6.02817
172 1 7.23 9.0375 1.8075 4.28694 0.568153 3.536
249 1 7.23 10.845 0 -3.5027 4.36086 3.5249
170 1 9.0375 9.0375 0 -0.984573 -5.08035 -6.71984
176 1 10.845 9.0375 1.8075 0.558079 7.87249 4.12339
251 1 9.0375 10.845 1.8075 -5.33456 -1.37232 1.67205
253 1 10.845 10.845 0 -2.74526 -7.79242 4.30898
174 1 12.6525 9.0375 0 -7.18429 -5.14692 3.76519
180 1 14.46 9.0375 1.8075 7.18535 3.42343 -2.85501
255 1 12.6525 10.845 1.8075 -7.28875 4.92498 3.39834
257 1 14.46 10.845 0 -1.87732 7.77266 -3.37685
178 1 16.2675 9.0375 0 -2.12907 -7.66304 -0.660832
259 1 16.2675 10.845 1.8075 -1.62952 4.62955 1.41085
182 1 19.8825 9.0375 0 -0.742791 1.97712 -3.2873
184 1 18.075 9.0375 1.8075 -7.40455 -0.531301 -5.613
261 1 18.075 10.845 0 1.38496 1.43698 2.22051
263 1 19.8825 10.845 1.8075 -2.73006 -6.76199 -1.31904
186 1 23.4975 9.0375 0 -4.54598 0.812264 1.98923
188 1 21.69 9.0375 1.8075 6.38999 -1.28644 -2.49013
265 1 21.69 10.845 0 6.64679 3.5432 5.75149
267 1 23.4975 10.845 1.8075 4.95723 3.21167 1.63306
190 1 27.1125 9.0375 0 5.85781 -5.25089 6.28446
192 1 25.305 9.0375 1.8075 1.31247 -7.8328 -6.3318
269 1 25.305 10.845 0 -2.32109 -5.55778 2.61432
271 1 27.1125 10.845 1.8075 3.62899 -1.43021 -0.871012
196 1 28.92 9.0375 1.8075 1.31023 2.19799 2.25903
273 1 28.92 10.845 0 5.73427 2.26339 3.82594
194 1 30.7275 9.0375 0 2.78159 -5.79617 4.97085
200 1 32.535 9.0375 1.8075 -3.94492 1.17592 5.2063
275 1 30.7275 10.845 1.8075 -5.43659 1.84038 5.33933
277 1 32.535 10.845 0 -0.00427122 5.89914 6.61231
198 1 34.3425 9.0375 0 -0.496659 2.57898 -5.34775
279 1 34.3425 10.845 1.8075 -7.61812 5.19947 3.46446
202 1 37.9575 9.0375 0 -0.464569 1.03866 4.97764
204 1 36.15 9.0375 1.8075 6.10032 -1.86928 1.0653
281 1 36.15 10.845 0 3.16122 -4.48262 1.27707
283 1 37.9575 10.845 1.8075 5.21083 2.04293 5.22142
206 1 41.5725 9.0375 0 3.12744 0.351855 -4.73419
208 1 39.765 9.0375 1.8075 -1.91797 -7.26869 -6.56283
285 1 39.765 10.845 0 -6.16748 -0.999377 1.99334
287 1 41.5725 10.845 1.8075 -5.57472 3.03358 -0.860526
210 1 45.1875 9.0375 0 3.30671 6.78246 -5.67275
212 1 43.38 9.0375 1.8075 0.51194 -3.99664 -7.76532
289 1 43.38 10.845 0 5.64096 -6.98626 -0.41091
291 1 45.1875 10.845 1.8075 5.39553 4.27554 1.21614
216 1 46.995 9.0375 1.8075 5.94329 -0.394916 -4.15424
293 1 46.995 10.845 0 -4.34677 -7.62963 4.09495
214 1 48.8025 9.0375 0 7.24651 -2.80596 7.36616
220 1 50.61 9.0375 1.8075 5.90956 5.40047 -6.84627
295 1 48.8025 10.845 1.8075 6.66343 -3.19629 1.34625
297 1 50.61 10.845 0 3.63827 -4.44627 7.6908
218 1 52.4175 9.0375 0 2.64415 6.8888 -0.125244
224 1 54.225 9.0375 1.8075 7.19252 -3.3552 3.17574
299 1 52.4175 10.845 1.8075 -3.13849 0.982097 -7.09918
301 1 54.225 10.845 0 -7.56677 -6.58828 7.09752
222 1 56.0325 9.0375 0 5.39849 6.21274 -4.17042
303 1 56.0325 10.845 1.8075 -3.54754 -1.5396 5.94349
226 1 59.6475 9.0375 0 4.67639 7.86475 1.26646
228 1 57.84 9.0375 1.8075 0.483549 -3.92218 2.85777
305 1 57.84 10.845 0 6.53857 -1.82635 6.85475
307 1 59.6475 10.845 1.8075 3.53396 -7.72374 -2.78376
230 1 63.2625 9.0375 0 -1.60093 7.9092 0.778288
232 1 61.455 9.0375 1.8075 2.0661 -4.43876 6.55416
309 1 61.455 10.845 0 -5.03661 -4.81536 -7.33355
311 1 63.2625 10.845 1.8075 -6.43471 -6.30787 -4.86837
236 1 65.07 9.0375 1.8075 -4.33221 -1.62926 -5.54792
313 1 65.07 10.845 0 -4.8062 2.06245 -0.810958
234 1 66.8775 9.0375 0 -3.8245 4.62137 7.11852
240 1 68.685 9.0375 1.8075 -3.18886 -2.31625 -2.43104
315 1 66.8775 10.845 1.8075 -3.32572 4.15748 5.52757
317 1 68.685 10.845 0 2.54216 -5.20593 -1.7104
238 1 70.4925 9.0375 0 4.18569 1.07999 -0.296367
319 1 70.4925 10.845 1.8075 4.8093 -1.3207 -5.67056
242 1 1.8075 12.6525 0 6.49412 -1.06776 -1.88467
244 1 0 12.6525 1.8075 6.9405 -7.46606 1.10984
321 1 0 14.46 0 5.05484 5.18625 3.84934
323 1 1.8075 14.46 1.8075 -3.63987 5.69846 6.25969
246 1 5.4225 12.6525 0 2.0188 -3.95464 -1.7754
248 1 3.615 12.6525 1.8075 -7.15892 7.5409 -0.975758
325 1 3.615 14.46 0 6.96767 3.69108 -6.33484
327 1 5.4225 14.46 1.8075 -0.165914 -6.4368 7.61558
252 1 7.23 12.6525 1.8075 6.05496 -0.719236 1.50492
329 1 7.23 14.46 0 0.632009 -6.33636 -6.40772
250 1 9.0375 12.6525 0 0.412325 -7.87682 1.58373
256 1 10.845 12.6525 1.8075 -1.8013 -3.11237 -4.04586
331 1 9.0375 14.46 1.8075 4.93139 -1.50905 -5.449
333 1 10.845 14.46 0 -0.736256 0.444833 -1.05046
254 1 12.6525 12.6525 0 3.11928 6.38173 4.41046
260 1 14.46 12.6525 1.8075 -0.156272 -3.47832 1.92112
335 1 12.6525 14.46 1.8075 2.21084 -5.76134 1.75204
337 1 14.46 14.46 0 -1.85509 -0.254321 4.40511
258 1 16.2675 12.6525 0 -6.44394 -2.32929 1.1837
339 1 16.2675 14.46 1.8075 -6.06214 3.62757 7.94823
262 1 19.8825 12.6525 0 -4.37377 -0.0994375 -1.40155
264 1 18.075 12.6525 1.8075 -1.1823 -3.43376 3.17985
341 1 18.075 14.46 0 -7.60083 -6.45156 -1.83801
343 1 19.8825 14.46 1.8075 7.61758 -2.1933 -4.11507
266 1 23.4975 12.6525 0 -4.69772 -4.13375 -5.49395
268 1 21.69 12.6525 1.8075 -3.70865 -4.91393 6.28582
345 1 21.69 14.46 0 3.30584 -7.81405 6.62099
347 1 23.4975 14.46 1.8075 7.85471 6.19732 7.05005
270 1 27.1125 12.6525 0 1.11085 7.92035 -2.70868
272 1 25.305 12.6525 1.8075 -5.19929 -2.81459 5.63638
349 1 25.305 14.46 0 -3.17936 -1.88593 7.68203
351 1 27.1125 14.46 1.8075 -4.48675 -5.97747 -3.8122
276 1 28.92 12.6525 1.8075 -2.75313 3.16206 -4.90961
353 1 28.92 14.46 0 -0.338996 -4.2356 0.810297
274 1 30.7275 12.6525 0 1.18212 -3.27533 -6.67612
280 1 32.535 12.6525 1.8075 -7.11438 -7.47158 3.66876
355 1 30.7275 14.46 1.8075 0.619664 -7.02061 -4.9158
357 1 32.535 14.46 0 2.74485 -2.90052 -6.94851
278 1 34.3425 12.6525 0 6.8177 -3.35248 1.11167
359 1 34.3425 14.46 1.8075 -5.70221 7.89453 -7.20952
282 1 37.9575 12.6525 0 -5.32027 0.13858 6.01083
284 1 36.15 12.6525 1.8075 3.58747 0.792595 5.49183
361 1 36.15 14.46 0 5.84473 -2.39424 7.09059
363 1 37.9575 14.46 1.8075 2.07032 2.86115 -3.52605
286 1 41.5725 12.6525 0 3.31738 -4.86046 -1.8473
288 1 39.765 12.6525 1.8075 0.215121 2.52508 -4.41937
365 1 39.765 14.46 0 -4.82109 6.26527 3.66927
367 1 41.5725 14.46 1.8075 6.46987 4.92227 5.51994
290 1 45.1875 12.6525 0 1.47773 1.68231 5.24971
292 1 43.38 12.6525 1.8075 1.37125 -6.1192 0.435019
369 1 43.38 14.46 0 1.15817 7.8085 -5.54686
371 1 45.1875 14.46 1.8075 0.228181 -0.690132 -2.5025
296 1 46.995 12.6525 1.8075 1.36198 -2.99035 -5.37092
373 1 46.995 14.46 0 -4.60413 -6.07758 -0.096414
294 1 48.8025 12.6525 0 -1.13608 -6.09691 -6.81954
300 1 50.61 12.6525 1.8075 3.91795 3.13588 0.515456
375 1 48.8025 14.46 1.8075 2.70845 5.71667 -5.83821
377 1 50.61 14.46 0 0.301236 2.21528 6.51355
298 1 52.4175 12.6525 0 -3.94884 -1.1974 -1.41266
304 1 54.225 12.6525 1.8075 -4.43919 -1.97375 -4.85078
379 1 52.4175 14.46 1.8075 1.03083 -0.679934 -6.09539
381 1 54.225 14.46 0 6.72465 7.74396 7.44513
302 1 56.0325 12.6525 0 7.36774 -1.42841 -2.38738
383 1 56.0325 14.46 1.8075 6.22024 -6.73194 -5.24069
306 1 59.6475 12.6525 0 -4.3565 3.82328 4.26468
308 1 57.84 12.6525 1.8075 3.45675 -0.94033 -7.82096
385 1 57.84 14.46 0 2.85082 -3.55054 -2.89955
387 1 59.6475 14.46 1.8075 -0.633822 3.96613 2.98735
310 1 63.2625 12.6525 0 6.92569 -1.84627 6.09224
312 1 61.455 12.6525 1.8075 3.60054 -2.20225 4.57522
389 1 61.455 14.46 0 -6.2875 2.15945 6.79392
391 1 63.2625 14.46 1.8075 -6.90147 7.58511 -5.59781
316 1 65.07 12.6525 1.8075 3.78437 1.10471 1.55258
393 1 65.07 14.46 0 -6.6553 -7.09507 0.352096
314 1 66.8775 12.6525 0 -0.073333 6.47501 -2.86746
320 1 68.685 12.6525 1.8075 -3.87107 1.54567 -0.425728
395 1 66.8775 14.46 1.8075 5.12365 0.395696 0.328888
397 1 68.685 14.46 0 -3.9877 -2.08325 0.144614
318 1 70.4925 12.6525 0 5.62612 -1.7726 3.35825
399 1 70.4925 14.46 1.8075 -0.980673 -3.16271 -6.91442
322 1 1.8075 16.2675 0 0.857065 5.93443 -4.77742
324 1 0 16.2675 1.8075 -7.81963 6.8708 -0.424026
326 1 5.4225 16.2675 0 6.11384 2.48953 2.50181
328 1 3.615 16.2675 1.8075 5.23956 7.69201 -6.61613
332 1 7.23 16.2675 1.8075 -3.68884 -6.10749 6.40146
330 1 9.0375 16.2675 0 -4.09947 -3.33788 7.81286
336 1 10.845 16.2675 1.8075 2.75986 -5.05178 -3.79801
334 1 12.6525 16.2675 0 1.82008 -3.23284 7.4801
340 1 14.46 16.2675 1.8075 7.61465 -3.72077 -0.464715
338 1 16.2675 16.2675 0 4.25961 2.70598 -2.48774
342 1 19.8825 16.2675 0 7.83732 0.362855 5.15823
344 1 18.075 16.2675 1.8075 -5.24571 -3.43906 -6.42621
346 1 23.4975 16.2675 0 -7.64244 -5.75977 -3.7503
348 1 21.69 16.2675 1.8075 1.3689 2.09011 2.69693
350 1 27.1125 16.2675 0 7.58299 5.17321 7.47119
352 1 25.305 16.2675 1.8075 -3.77509 7.89658 -4.61019
356 1 28.92 16.2675 1.8075 -2.95398 -0.0116763 -5.8586
354 1 30.7275 16.2675 0 4.65309 -1.96341 -5.97042
360 1 32.535 16.2675 1.8075 -1.23566 6.53741 -4.0083
358 1 34.3425 16.2675 0 2.66983 -7.02341 -4.25039
362 1 37.9575 16.2675 0 7.52681 -0.572495 2.01113
364 1 36.15 16.2675 1.8075 -0.827062 1.45607 4.9324
366 1 41.5725 16.2675 0 7.35546 -1.09534 -4.15239
368 1 39.765 16.2675 1.8075 1.18846 7.91004 -1.05654
370 1 45.1875 16.2675 0 0.851983 0.069064 -1.05108
372 1 43.38 16.2675 1.8075 4.04399 5.81277 2.67581
376 1 46.995 16.2675 1.8075 7.85257 2.01131 -1.20823
374 1 48.8025 16.2675 0 -1.07495 3.08348 -5.28051
380 1 50.61 16.2675 1.8075 5.66296 -3.02767 3.71928
378 1 52.4175 16.2675 0 1.50527 3.29663 -2.17975
384 1 54.225 16.2675 1.8075 6.48755 -0.288095 -6.44299
382 1 56.0325 16.2675 0 2.64847 -0.103033 1.80686
386 1 59.6475 16.2675 0 -1.03536 0.310409 -1.34491
388 1 57.84 16.2675 1.8075 7.72533 -4.81599 -2.11996
390 1 63.2625 16.2675 0 7.00214 -5.49853 -3.72833
392 1 61.455 16.2675 1.8075 -1.43148 -7.51754 -5.1117
396 1 65.07 16.2675 1.8075 0.420892 -7.05305 6.63174
394 1 66.8775 16.2675 0 -6.99281 -0.370493 -7.29924
400 1 68.685 16.2675 1.8075 -1.66846 2.52655 4.34551
398 1 70.4925 16.2675 0 -4.499 -5.08638 3.20993
401 1 0 18.075 0 5.22546 -6.51638 6.4881
402 1 1.8075 19.8825 0 -2.08493 2.48861 2.96523
403 1 1.8075 18.075 1.8075 5.92153 -0.249635 3.624
404 1 0 19.8825 1.8075 0.477723 -6.39332 6.66963
405 1 3.615 18.075 0 -7.1704 5.5877 5.9992
406 1 5.4225 19.8825 0 6.76156 7.61216 3.57338
407 1 5.4225 18.075 1.8075 5.73186 -6.43748 -3.71347
408 1 3.615 19.8825 1.8075 -5.79821 1.1355 -5.90237
409 1 7.23 18.075 0 1.95536 -4.45112 5.6615
412 1 7.23 19.8825 1.8075 6.98292 5.47973 4.98141
410 1 9.0375 19.8825 0 3.50347 4.83435 7.2983
411 1 9.0375 18.075 1.8075 -4.05868 -1.86106 -3.83833
413 1 10.845 18.075 0 -7.73262 5.69331 -0.770654
416 1 10.845 19.8825 1.8075 3.29933 -5.93365 0.878864
414 1 12.6525 19.8825 0 -1.81581 7.62014 -5.43835
415 1 12.6525 18.075 1.8075 -4.84672 5.03562 1.67114
417 1 14.46 18.075 0 -6.27382 -6.61598 2.8522
420 1 14.46 19.8825 1.8075 2.20919 -1.6751 3.57509
418 1 16.2675 19.8825 0 3.04149 3.58388 5.38617
419 1 16.2675 18.075 1.8075 0.52193 4.81673 -2.3873
421 1 18.075 18.075 0 5.40135 6.64757 2.11183
422 1 19.8825 19.8825 0 1.99039 -4.27784 6.75266
423 1 19.8825 18.075 1.8075 -5.79419 4.98904 -1.62567
424 1 18.075 19.8825 1.8075 6.30638 -6.65093 4.05555
425 1 21.69 18.075 0 0.410821 -1.3289 -0.329305
426 1 23.4975 19.8825 0 3.4404 -5.21342 -0.275955
427 1 23.4975 18.075 1.8075 -1.51848 -6.29373 -5.84591
428 1 21.69 19.8825 1.8075 2.98587 7.35495 7.64874
429 1 25.305 18.075 0 -3.41188 3.67358 1.69925
430 1 27.1125 19.8825 0 0.919167 -0.258128 4.05958
431 1 27.1125 18.075 1.8075 3.16755 6.39374 -0.688216
432 1 25.305 19.8825 1.8075 3.79768 2.15012 -6.79691
433 1 28.92 18.075 0 6.35412 0.202048 6.87123
436 1 28.92 19.8825 1.8075 -3.84886 -6.99501 -4.17582
434 1 30.7275 19.8825 0 1.31175 -4.00145 6.94436
435 1 30.7275 18.075 1.8075 6.91238 -2.79942 6.00246
437 1 32.535 18.075 0 0.66961 5.19767 4.97983
440 1 32.535 19.8825 1.8075 -7.30019 3.50926 7.9653
438 1 34.3425 19.8825 0 2.82794 -6.33567 5.15352
439 1 34.3425 18.075 1.8075 0.801167 5.05045 -3.57054
441 1 36.15 18.075 0 -3.71214 0.0801025 -6.42477
442 1 37.9575 19.8825 0 -1.48277 5.25329 1.15609
443 1 37.9575 18.075 1.8075 2.60587 -0.184135 6.82428
444 1 36.15 19.8825 1.8075 5.76469 4.53453 -4.76826
445 1 39.765 18.075 0 7.43569 -4.86982 -0.0907256
446 1 41.5725 19.8825 0 5.34931 6.85851 -0.084606
447 1 41.5725 18.075 1.8075 7.23659 5.50399 -1.05331
448 1 39.765 19.8825 1.8075 4.61244 -1.11713 -4.44336
449 1 43.38 18.075 0 -1.50349 7.05544 0.704857
450 1 45.1875 19.8825 0 -3.38536 3.92474 7.2342
451 1 45.1875 18.075 1.8075 0.566113 -0.275815 -6.85811
452 1 43.38 19.8825 1.8075 -6.79855 3.23965 -5.33564
453 1 46.995 18.075 0 -2.46822 3.35407 -7.15543
456 1 46.995 19.8825 1.8075 6.56367 6.53599 3.92994
454 1 48.8025 19.8825 0 4.35269 -7.87352 -6.51616
455 1 48.8025 18.075 1.8075 -0.602475 5.85589 -4.37303
457 1 50.61 18.075 0 7.3962 -0.42069 -7.81718
460 1 50.61 19.8825 1.8075 4.07336 6.25784 6.13136
458 1 52.4175 19.8825 0 -1.40768 -5.34225 -1.93808
459 1 52.4175 18.075 1.8075 4.2138 -3.77601 -6.28626
461 1 54.225 18.075 0 1.94492 -4.90657 2.73196
464 1 54.225 19.8825 1.8075 2.2478 -4.98662 -6.46843
462 1 56.0325 19.8825 0 1.64729 3.91674 0.187862
463 1 56.0325 18.075 1.8075 -5.92302 3.34547 7.32886
465 1 57.84 18.075 0 5.42759 2.22674 -7.55347
466 1 59.6475 19.8825 0 5.7759 2.04297 5.7711
467 1 59.6475 18.075 1.8075 -3.18337 -5.51586 7.253
468 1 57.84 19.8825 1.8075 4.08564 5.82928 -6.25369
469 1 61.455 18.075 0 6.38843 4.29334 -1.82351
470 1 63.2625 19.8825 0 0.837836 0.919114 0.195133
471 1 63.2625 18.075 1.8075 -6.80951 -5.82893 -4.83194
472 1 61.455 19.8825 1.8075 0.753079 -7.76137 1.08938
473 1 65.07 18.075 0 7.69707 -2.43698 4.7561
476 1 65.07 19.8825 1.8075 -4.3165 7.94333 1.67221
474 1 66.8775 19.8825 0 -7.80949 2.31263 4.17284
475 1 66.8775 18.075 1.8075 -3.77624 4.40652 7.39918
477 1 68.685 18.075 0 6.69049 6.17199 -5.06345
480 1 68.685 19.8825 1.8075 3.59278 -5.50329 -4.12477
478 1 70.4925 19.8825 0 -6.0856 6.94411 6.87186
479 1 70.4925 18.075 1.8075 7.6313 5.65658 2.40537
481 1 0 21.69 0 -1.40547 0.0641391 -4.2842
482 1 1.8075 23.4975 0 -2.8725 1.37186 5.47038
483 1 1.8075 21.69 1.8075 5.71143 0.169624 2.80082
484 1 0 23.4975 1.8075 -5.47847 -2.00161 4.24544
485 1 3.615 21.69 0 2.66577 4.25644 -1.52201
486 1 5.4225 23.4975 0 -6.44291 -0.999986 7.65464
487 1 5.4225 21.69 1.8075 7.26491 4.22608 -2.8356
488 1 3.615 23.4975 1.8075 4.87736 -2.90154 7.77305
489 1 7.23 21.69 0 -0.0839543 2.9523 1.12387
492 1 7.23 23.4975 1.8075 2.10969 -3.61091 0.605444
490 1 9.0375 23.4975 0 -5.57016 0.0259729 6.49242
491 1 9.0375 21.69 1.8075 -6.68778 3.78825 4.04011
493 1 10.845 21.69 0 0.685645 4.25607 -7.79449
496 1 10.845 23.4975 1.8075 -6.93394 2.71016 4.00004
494 1 12.6525 23.4975 0 2.03016 -3.92526 -1.1447
495 1 12.6525 21.69 1.8075 -7.54311 -6.63375 6.4607
497 1 14.46 21.69 0 7.01157 -6.16408 -6.27198
500 1 14.46 23.4975 1.8075 4.41585 3.6851 4.41566
498 1 16.2675 23.4975 0 2.37957 -1.50296 1.47027
499 1 16.2675 21.69 1.8075 1.0814 6.08732 3.64695
501 1 18.075 21.69 0 -2.01894 -2.00668 -1.46704
502 1 19.8825 23.4975 0 -1.8397 3.84536 -6.4797
503 1 19.8825 21.69 1.8075 0.69817 7.96002 -4.23535
504 1 18.075 23.4975 1.8075 -5.31471 -1.75001 1.26472
505 1 21.69 21.69 0 3.95656 -0.151863 -7.55994
506 1 23.4975 23.4975 0 -1.42268 -2.81225 -2.89402
507 1 23.4975 21.69 1.8075 0.672224 1.41458 7.48887
508 1 21.69 23.4975 1.8075 -7.20692 -3.74476 -6.01654
509 1 25.305 21.69 0 1.98869 -1.06225 -4.84685
510 1 27.1125 23.4975 0 -2.07002 -1.46196 6.36844
511 1 27.1125 21.69 1.8075 4.4557 5.31284 -0.140564
512 1 25.305 23.4975 1.8075 3.29691 1.11167 7.16902
513 1 28.92 21.69 0 4.94541 -4.58634 7.94839
516 1 28.92 23.4975 1.8075 2.49857 -5.89721 -6.94586
514 1 30.7275 23.4975 0 -1.34248 -7.11737 7.30735
515 1 30.7275 21.69 1.8075 -1.51699 2.86383 -6.21601
517 1 32.535 21.69 0 3.68191 -2.72037 -1.72486
520 1 32.535 23.4975 1.8075 0.772877 6.81666 -3.51897
518 1 34.3425 23.4975 0 -5.1962 1.50736 7.80293
519 1 34.3425 21.69 1.8075 4.01499 -4.32216 -6.27078
521 1 36.15 21.69 0 2.73706 -6.48518 5.9376
522 1 37.9575 23.4975 0 -7.30292 5.45032 3.84037
523 1 37.9575 21.69 1.8075 -4.86557 6.47754 7.85023
524 1 36.15 23.4975 1.8075 -6.02367 -2.09571 -2.3895
525 1 39.765 21.69 0 -5.91725 4.85731 -4.41574
526 1 41.5725 23.4975 0 -5.73343 -7.88409 6.69525
527 1 41.5725 21.69 1.8075 0.62819 -6.89866 -7.48004
528 1 39.765 23.4975 1.8075 -2.35417 -4.79882 0.10043
529 1 43.38 21.69 0 5.06505 1.8573 3.23759
530 1 45.1875 23.4975 0 6.49148 2.19803 2.93184
531 1 45.1875 21.69 1.8075 -7.86777 -6.70896 -0.935497
532 1 43.38 23.4975 1.8075 6.46148 7.02469 -6.963
533 1 46.995 21.69 0 7.75528 5.56045 -6.51852
536 1 46.995 23.4975 1.8075 1.58993 -5.70821 3.76035
534 1 48.8025 23.4975 0 -5.71976 -0.829905 2.74805
535 1 48.8025 21.69 1.8075 1.02999 1.09426 0.835426
537 1 50.61 21.69 0 5.51542 -1.16406 2.13071
540 1 50.61 23.4975 1.8075 -0.461154 -5.19107 -6.37363
538 1 52.4175 23.4975 0 3.54003 -1.12333 2.66741
539 1 52.4175 21.69 1.8075 -2.69902 5.79224 7.59428
541 1 54.225 21.69 0 1.96685 -2.20259 -1.19202
544 1 54.225 23.4975 1.8075 -3.48073 7.76268 3.88504
542 1 56.0325 23.4975 0 2.45266 1.84606 5.22292
543 1 56.0325 21.69 1.8075 -2.58117 -1.9881 -7.36057
545 1 57.84 21.69 0 6.49582 -4.34298 -6.29833
546 1 59.6475 23.4975 0 2.33707 0.0206632 -3.20752
547 1 59.6475 21.69 1.8075 0.992226 2.72908 3.85408
548 1 57.84 23.4975 1.8075 3.63382 0.261555 4.7927
549 1 61.455 21.69 0 -3.61057 5.03757 2.55382
550 1 63.2625 23.4975 0 6.62978 4.02976 6.61981
551 1 63.2625 21.69 1.8075 -2.74039 -5.40281 -1.65137
552 1 61.455 23.4975 1.8075 -3.96543 6.38336 -0.175779
553 1 65.07 21.69 0 -3.97762 -7.5173 -1.11813
556 1 65.07 23.4975 1.8075 3.2505 0.58431 4.64298
554 1 66.8775 23.4975 0 5.15662 -2.25808 4.8536
555 1 66.8775 21.69 1.8075 0.445938 0.278278 -0.499566
557 1 68.685 21.69 0 -3.99178 -6.90456 4.72516
560 1 68.685 23.4975 1.8075 6.74485 -2.74142 -5.46584
558 1 70.4925 23.4975 0 2.88373 -7.17569 -2.47633
559 1 70.4925 21.69 1.8075 7.46769 -7.78603 0.306425
561 1 0 25.305 0 -1.6175 -0.175679 5.76332
562 1 1.8075 27.1125 0 1.25328 -0.372243 -4.89554
563 1 1.8075 25.305 1.8075 -7.17635 1.06786 2.58391
564 1 0 27.1125 1.8075 0.583382 3.60744 3.62069
565 1 3.615 25.305 0 5.91135 3.61356 -4.8534
566 1 5.4225 27.1125 0 4.46541 -6.50349 0.345066
567 1 5.4225 25.305 1.8075 6.04689 6.84689 -4.54643
568 1 3.615 27.1125 1.8075 2.36487 5.91939 -3.02707
569 1 7.23 25.305 0 -6.83625 6.07269 -3.59484
572 1 7.23 27.1125 1.8075 -6.13567 -7.24916 3.59509
570 1 9.0375 27.1125 0 0.655848 -3.38267 2.71955
571 1 9.0375 25.305 1.8075 6.99296 -0.833432 7.08608
573 1 10.845 25.305 0 -3.40087 -2.1721 2.24808
576 1 10.845 27.1125 1.8075 5.68487 -0.731813 -3.08201
574 1 12.6525 27.1125 0 -1.57676 0.514286 4.94844
575 1 12.6525 25.305 1.8075 -5.21245 -1.14607 2.22506
577 1 14.46 25.305 0 7.068 3.72982 -7.55658
580 1 14.46 27.1125 1.8075 6.15537 0.64384 2.94704
578 1 16.2675 27.1125 0 2.67857 -3.25326 -1.71975
579 1 16.2675 25.305 1.8075 -7.3582 -1.05549 -2.58042
581 1 18.075 25.305 0 -5.64246 -6.00897 7.72063
582 1 19.8825 27.1125 0 -4.65863 0.50749 2.08489
583 1 19.8825 25.305 1.8075 -5.80847 3.60625 -0.358664
584 1 18.075 27.1125 1.8075 0.738183 -3.59441 7.43272
585 1 21.69 25.305 0 1.6207 2.43836 1.5256
586 1 23.4975 27.1125 0 -6.3826 -5.45357 4.28495
587 1 23.4975 25.305 1.8075 5.27543 6.13704 -3.90604
588 1 21.69 27.1125 1.8075 -0.971921 0.764186 5.25777
589 1 25.305 25.305 0 1.57717 2.59558 3.13106
590 1 27.1125 27.1125 0 -2.3647 -6.71358 1.0777
591 1 27.1125 25.305 1.8075 2.67795 2.16713 -7.26629
592 1 25.305 27.1125 1.8075 -7.31279 -1.34012 2.0573
593 1 28.92 25.305 0 2.71995 -7.75324 -5.31688
596 1 28.92 27.1125 1.8075 -0.666741 7.49217 7.27168
594 1 30.7275 27.1125 0 2.24718 0.421692 7.72444
595 1 30.7275 25.305 1.8075 6.52082 2.13462 3.20056
597 1 32.535 25.305 0 -5.51566 -6.66306 6.95102
600 1 32.535 27.1125 1.8075 3.1793 -2.89049 2.52
598 1 34.3425 27.1125 0 -0.546564 6.96186 2.88126
599 1 34.3425 25.305 1.8075 7.71113 -4.70039 0.0582793
601 1 36.15 25.305 0 -6.00441 3.44539 0.338764